 Gaussian 09, Revision A.02,
 Gaussian 09:  EM64L-G09RevA.02 11-Jun-2009

 ---------------------
 #p CIS/3-21G Opt Freq
 ---------------------

 ---------------
 H20 MCSCF/3-21G
 ---------------
 Symbolic Z-matrix:
 Charge =  0 Multiplicity = 1

 SCF Done:  E(RHF) =  -75.5850602933     A.U. after   10 cycles
 E2 =    -0.1200440367D+00 EUMP2 =    -0.75705104329960D+02
 SCF Done:  E(RHF) =  -75.5724295630     A.U. after   10 cycles
 E2 =    -0.1274232775D+00 EUMP2 =    -0.75699852840464D+02
 SCF Done:  E(RHF) =  -75.4791938564     A.U. after   11 cycles
 E2 =    -0.1450363676D+00 EUMP2 =    -0.75624230223961D+02
 SCF Done:  E(RHF) =  -75.5088065083     A.U. after    9 cycles
 E2 =    -0.1379284321D+00 EUMP2 =    -0.75646734940403D+02
 SCF Done:  E(RHF) =  -75.5042312456     A.U. after    9 cycles
 E2 =    -0.1348678324D+00 EUMP2 =    -0.75639099077997D+02
 SCF Done:  E(RHF) =  -75.4677145721     A.U. after   11 cycles
 E2 =    -0.1309453545D+00 EUMP2 =    -0.75598659926618D+02
 SCF Done:  E(RHF) =  -75.4515406303     A.U. after    9 cycles
 E2 =    -0.1281844559D+00 EUMP2 =    -0.75579725086206D+02
 SCF Done:  E(RHF) =  -75.4363039391     A.U. after   11 cycles
 E2 =    -0.1248166337D+00 EUMP2 =    -0.75561120572754D+02
 SCF Done:  E(RHF) =  -75.4371791871     A.U. after    8 cycles
 E2 =    -0.1247645009D+00 EUMP2 =    -0.75561943688000D+02
 SCF Done:  E(RHF) =  -75.4371153797     A.U. after    7 cycles
 E2 =    -0.1247655897D+00 EUMP2 =    -0.75561880969394D+02
 SCF Done:  E(RHF) =  -75.4371188582     A.U. after    7 cycles
 E2 =    -0.1247686064D+00 EUMP2 =    -0.75561887464570D+02
 SCF Done:  E(RHF) =  -75.4371102790     A.U. after    7 cycles
 E2 =    -0.1247622223D+00 EUMP2 =    -0.75561872501378D+02
 Optimization completed.
    -- Stationary point found.
 Normal termination of Gaussian 09 at Sun Apr 10 22:40:47 2016.

 ----------------------------------------------------------------------
 #P Geom=AllCheck Guess=TCheck SCRF=Check GenChk RCIS(FC,Read)/3-21G Fr
 eq
 ----------------------------------------------------------------------

 H20 MCSCF/3-21G
 ---------------
 Redundant internal coordinates taken from checkpoint file:
 H20_CIS.chk
 Charge =  0 Multiplicity = 1

                         Standard orientation:
 ---------------------------------------------------------------------
 Center     Atomic      Atomic             Coordinates (Angstroms)
 Number     Number       Type             X           Y           Z
 ---------------------------------------------------------------------
      1          8           0        0.000000    0.000000    0.000041
      2          1           0        0.000000    1.202124   -0.000163
      3          1           0        0.000000   -1.202124   -0.000163
 ---------------------------------------------------------------------

 SCF Done:  E(RHF) =  -75.4371102790     A.U. after    1 cycles

 Excitation energies and oscillator strengths:

 Excited State   1:      Singlet-B1     3.8438 eV  322.56 nm  f=0.0001  <S**2>=0.000
       4 ->  6         0.70585
 This state for optimization and/or second-order correction.
 Total Energy, E(CIS) =  -75.2958543492
 Copying the excited state density for this state as the 1-particle RhoCI density.

 Excited State   2:      Singlet-A1     3.8438 eV  322.56 nm  f=0.0001  <S**2>=0.000
       5 ->  6         0.70585

 Excited State   3:      Singlet-A2     7.9750 eV  155.47 nm  f=0.0000  <S**2>=0.000
       4 ->  7         0.69915

 The electronic state is 1-A1.
 Alpha  occ. eigenvalues --  -20.35171  -1.15044  -0.57813  -0.39239  -0.39239
 Alpha virt. eigenvalues --    0.10281   0.33825   1.03273   1.20295   1.85506
 Alpha virt. eigenvalues --    1.85506   2.32863   2.96510

 Mulliken atomic charges:
              1
     1  O   -0.880093
     2  H    0.440047
     3  H    0.440047
 Sum of Mulliken atomic charges =   0.00000

 Dipole moment (field-independent basis, Debye):
    X=              0.0000    Y=              0.0000    Z=             -0.0011  Tot=              0.0011
 Quadrupole moment (field-independent basis, Debye-Ang):
   XX=             -7.2519   YY=              0.5766   ZZ=             -7.2519
   XY=              0.0000   XZ=              0.0000   YZ=              0.0000

  Exact polarizability:   1.288   0.000  48.033   0.000   0.000   0.521
 Approx polarizability:   0.450   0.000  13.002   0.000   0.000   0.450

 ******    1 imaginary frequencies (negative Signs) ******

                     1                      2                      3
                    B2                     A1                     A1
 Frequencies -- -2560.3891               102.6828              2427.0270
 Red. masses --     1.1259                 1.1259                 1.0078
 Frc consts  --     4.3487                 0.0070                 3.4977
 IR Inten    -- 11000.1044                30.7833                 0.0000

 - Thermochemistry -
 -------------------
 Temperature   298.150 Kelvin.  Pressure   1.00000 Atm.
 Atom     1 has atomic number  8 and mass  15.99491

 Molecular mass:    18.01056 amu.
 Principal axes and moments of inertia in atomic units:
                           1         2         3
     Eigenvalues --     0.00000  10.40187  10.40187
           X            0.00000   0.00000   1.00000
           Y            1.00000   0.00000   0.00000
           Z            0.00000   1.00000   0.00000
 This molecule is a prolate symmetric top.
 Rotational symmetry number  2.
 Rotational temperatures (Kelvin) ************     8.32675     8.32675
 Rotational constants (GHZ):      ************   173.50155   173.50155
    1 imaginary frequencies ignored.
 Zero-point vibrational energy      15131.0 (Joules/Mol)
                                    3.61640 (Kcal/Mol)
 Warning -- explicit consideration of   1 degrees of freedom as
           vibrations may cause significant error
 Vibrational temperatures:    147.74  3491.95
          (Kelvin)

 Zero-point correction=                           0.005763 (Hartree/Particle)
 Thermal correction to Energy=                    0.009325
 Thermal correction to Enthalpy=                  0.010269
 Thermal correction to Gibbs Free Energy=        -0.005909
 Sum of electronic and zero-point Energies=            -75.290091
 Sum of electronic and thermal Energies=               -75.286529
 Sum of electronic and thermal Enthalpies=             -75.285585
 Sum of electronic and thermal Free Energies=          -75.301764

                     E (Thermal)             CV                S
                      KCal/Mol        Cal/Mol-Kelvin    Cal/Mol-Kelvin
 Total                    5.852              7.911             34.051
 Electronic               0.000              0.000              0.000
 Translational            0.889              2.981             34.608
 Rotational               0.889              2.981             -3.960
 Vibrational              4.074              1.949              3.403
 Vibration     1          0.605              1.947              3.403

 Optimization completed.
    -- Stationary point found.
 Normal termination of Gaussian 09 at Sun Apr 10 22:40:50 2016.
