 Gaussian 09, Revision A.02,
 Gaussian 09:  EM64L-G09RevA.02 11-Jun-2009

 ---------------------------------------------
 #p uhf/6-31g Opt(Z-matrix) Guess=(Always,Mix)
 ---------------------------------------------

 ------------
 CH4 C-H Scan
 ------------
 Symbolic Z-matrix:
 Charge =  0 Multiplicity = 1

 SCF Done:  E(UHF) =  -39.6981930382     A.U. after   14 cycles
 SCF Done:  E(UHF) =  -39.6989416294     A.U. after   14 cycles
 SCF Done:  E(UHF) =  -39.6989431484     A.U. after   15 cycles
 Optimization completed.
    -- Stationary point found.
 SCF Done:  E(UHF) =  -39.9498061806     A.U. after   14 cycles
 SCF Done:  E(UHF) =  -39.9498401180     A.U. after   14 cycles
 Optimization completed.
 SCF Done:  E(UHF) =  -40.0824901961     A.U. after   14 cycles
 SCF Done:  E(UHF) =  -40.0825102936     A.U. after   14 cycles
 SCF Done:  E(UHF) =  -40.1480820935     A.U. after   14 cycles
 SCF Done:  E(UHF) =  -40.1481157418     A.U. after   14 cycles
 SCF Done:  E(UHF) =  -40.1751778102     A.U. after   14 cycles
 SCF Done:  E(UHF) =  -40.0455788701     A.U. after   14 cycles
 SCF Done:  E(UHF) =  -40.0454442186     A.U. after   14 cycles
 SCF Done:  E(UHF) =  -40.0454447176     A.U. after   14 cycles
 SCF Done:  E(UHF) =  -40.0453405777     A.U. after   14 cycles
 SCF Done:  E(UHF) =  -40.0453408429     A.U. after   14 cycles
 SCF Done:  E(UHF) =  -40.0452586033     A.U. after   14 cycles
 SCF Done:  E(UHF) =  -40.0452587455     A.U. after   14 cycles
 SCF Done:  E(UHF) =  -40.0451923838     A.U. after   15 cycles
 SCF Done:  E(UHF) =  -40.0451924607     A.U. after   15 cycles
    -- Stationary point found.
 SCF Done:  E(UHF) =  -40.0451378674     A.U. after   15 cycles
 Optimization completed.
    -- Stationary point found.

                         Standard orientation:
 ---------------------------------------------------------------------
 Center     Atomic      Atomic             Coordinates (Angstroms)
 Number     Number       Type             X           Y           Z
 ---------------------------------------------------------------------
      1          6           0        0.358888    0.000216    0.000035
      2          1           0       -3.241111   -0.001952   -0.000335
      3          1           0        0.365618   -0.587031   -0.896319
      4          1           0        0.358271    1.070126   -0.060343
      5          1           0        0.363894   -0.482441    0.956787
 ---------------------------------------------------------------------

 The electronic state is 1-A.
 Alpha  occ. eigenvalues --  -11.22991  -0.95223  -0.58029  -0.58028  -0.38457
 Alpha virt. eigenvalues --    0.09818   0.25565   0.32924   0.32924   0.74520
 Alpha virt. eigenvalues --    0.74916   0.74917   0.93058   1.13223   1.22754
 Alpha virt. eigenvalues --    1.26063   1.26064
  Beta  occ. eigenvalues --  -11.20473  -0.85275  -0.56284  -0.56283  -0.49440
  Beta virt. eigenvalues --    0.15265   0.28000   0.33855   0.33855   0.76184
  Beta virt. eigenvalues --    0.76185   0.85497   0.93432   1.00719   1.25481
  Beta virt. eigenvalues --    1.26622   1.26624

 Mulliken atomic charges:
              1
     1  C   -0.458478
     2  H   -0.000700
     3  H    0.153058
     4  H    0.153063
     5  H    0.153058
 Sum of Mulliken atomic charges =   0.00000

 Dipole moment (field-independent basis, Debye):
    X=              0.0216    Y=              0.0000    Z=              0.0000  Tot=              0.0216
 Quadrupole moment (field-independent basis, Debye-Ang):
   XX=            -10.0164   YY=             -8.4511   ZZ=             -8.4513
   XY=             -0.0064   XZ=             -0.0011   YZ=              0.0000

 Normal termination of Gaussian 09 at Sun Apr 10 21:51:12 2016.
