 Gaussian 09, Revision A.02,
 Gaussian 09:  EM64L-G09RevA.02 11-Jun-2009

 --------------------------
 #p uhf/6-31g Opt(Z-matrix)
 --------------------------

 ------------
 CH4 C-H Scan
 ------------
 Symbolic Z-matrix:
 Charge =  0 Multiplicity = 1

 SCF Done:  E(UHF) =  -39.6981930382     A.U. after    9 cycles
 SCF Done:  E(UHF) =  -39.6989416294     A.U. after   10 cycles
 SCF Done:  E(UHF) =  -39.6989431484     A.U. after    9 cycles
 Optimization completed.
    -- Stationary point found.
 SCF Done:  E(UHF) =  -39.9498061806     A.U. after    9 cycles
 SCF Done:  E(UHF) =  -39.9498401180     A.U. after   10 cycles
 Optimization completed.
 SCF Done:  E(UHF) =  -40.0824901961     A.U. after    9 cycles
 SCF Done:  E(UHF) =  -40.0825102936     A.U. after    9 cycles
 SCF Done:  E(UHF) =  -40.1480820935     A.U. after    9 cycles
 SCF Done:  E(UHF) =  -40.1481157418     A.U. after    8 cycles
 SCF Done:  E(UHF) =  -40.1751778102     A.U. after    9 cycles
 SCF Done:  E(UHF) =  -39.9025415284     A.U. after   10 cycles
 SCF Done:  E(UHF) =  -39.9025475499     A.U. after    8 cycles
 SCF Done:  E(UHF) =  -39.8953168881     A.U. after    9 cycles
 SCF Done:  E(UHF) =  -39.8953215891     A.U. after    9 cycles
 SCF Done:  E(UHF) =  -39.8885478153     A.U. after    9 cycles
 SCF Done:  E(UHF) =  -39.8885515214     A.U. after    9 cycles
 SCF Done:  E(UHF) =  -39.8822241960     A.U. after    9 cycles
 SCF Done:  E(UHF) =  -39.8822271444     A.U. after    9 cycles
    -- Stationary point found.
 SCF Done:  E(UHF) =  -39.8763366486     A.U. after    9 cycles
 SCF Done:  E(UHF) =  -39.8763390121     A.U. after    9 cycles
 Optimization completed.
    -- Stationary point found.

                         Standard orientation:
 ---------------------------------------------------------------------
 Center     Atomic      Atomic             Coordinates (Angstroms)
 Number     Number       Type             X           Y           Z
 ---------------------------------------------------------------------
      1          6           0        0.348729    0.000050   -0.000009
      2          1           0       -3.251271   -0.000413   -0.000009
      3          1           0        0.386917   -0.692286   -0.813765
      4          1           0        0.385388    1.051026   -0.192597
      5          1           0        0.386590   -0.358630    1.006423
 ---------------------------------------------------------------------

 The electronic state is 1-A.
 Alpha  occ. eigenvalues --  -11.34249  -0.98419  -0.65354  -0.65351  -0.23275
 Alpha virt. eigenvalues --   -0.05118   0.22030   0.28263   0.28264   0.69021
 Alpha virt. eigenvalues --    0.69024   0.75048   0.88696   1.11005   1.17263
 Alpha virt. eigenvalues --    1.18927   1.18932
  Beta  occ. eigenvalues --  -11.34249  -0.98419  -0.65354  -0.65351  -0.23275
  Beta virt. eigenvalues --   -0.05118   0.22030   0.28263   0.28264   0.69021
  Beta virt. eigenvalues --    0.69024   0.75048   0.88696   1.11005   1.17263
  Beta virt. eigenvalues --    1.18927   1.18932

 Mulliken atomic charges:
              1
     1  C   -0.376581
     2  H   -0.292234
     3  H    0.222925
     4  H    0.222965
     5  H    0.222925
 Sum of Mulliken atomic charges =   0.00000

 Dipole moment (field-independent basis, Debye):
    X=              5.1556    Y=              0.0008    Z=              0.0000  Tot=              5.1556
 Quadrupole moment (field-independent basis, Debye-Ang):
   XX=            -23.8075   YY=             -8.2896   ZZ=             -8.2903
   XY=             -0.0033   XZ=             -0.0001   YZ=              0.0000

 Normal termination of Gaussian 09 at Sun Apr 10 21:26:58 2016.
