 Gaussian 09, Revision A.02,
 Gaussian 09:  EM64L-G09RevA.02 11-Jun-2009

 -----------------
 #p uhf/6-31g scan
 -----------------

 ------------
 CH4 C-H Scan
 ------------
 Symbolic Z-matrix:
 Charge =  0 Multiplicity = 1

 SCF Done:  E(UHF) =  -39.6981930382     A.U. after    9 cycles

 The electronic state is 1-A1.
 Alpha  occ. eigenvalues --  -11.18947  -1.04191  -0.64504  -0.54727  -0.54727
 Alpha virt. eigenvalues --    0.26573   0.32923   0.32923   0.40186   0.60266
 Alpha virt. eigenvalues --    0.74322   0.74322   1.23926   1.23926   1.27058
 Alpha virt. eigenvalues --    1.38651   2.42455
  Beta  occ. eigenvalues --  -11.18947  -1.04191  -0.64504  -0.54727  -0.54727
  Beta virt. eigenvalues --    0.26573   0.32923   0.32923   0.40186   0.60266
  Beta virt. eigenvalues --    0.74322   0.74322   1.23926   1.23926   1.27058
  Beta virt. eigenvalues --    1.38651   2.42455

 Mulliken atomic charges:
              1
     1  C   -0.473558
     2  H    0.059895
     3  H    0.137888
     4  H    0.137888
     5  H    0.137888
 Sum of Mulliken atomic charges =   0.00000

 Dipole moment (field-independent basis, Debye):
    X=              0.0000    Y=              0.0000    Z=              0.0433  Tot=              0.0433
 Quadrupole moment (field-independent basis, Debye-Ang):
   XX=             -7.7591   YY=             -7.7591   ZZ=             -8.0505
   XY=              0.0000   XZ=              0.0000   YZ=              0.0000

 SCF Done:  E(UHF) =  -39.9490357524     A.U. after    9 cycles
 SCF Done:  E(UHF) =  -40.0817855424     A.U. after    9 cycles
 SCF Done:  E(UHF) =  -40.1475621186     A.U. after    9 cycles
 SCF Done:  E(UHF) =  -40.1748549012     A.U. after    9 cycles
 SCF Done:  E(UHF) =  -40.1800417342     A.U. after   10 cycles
 SCF Done:  E(UHF) =  -40.1727132204     A.U. after    9 cycles
 SCF Done:  E(UHF) =  -40.1585140331     A.U. after    9 cycles
 SCF Done:  E(UHF) =  -40.1407624864     A.U. after    9 cycles
 SCF Done:  E(UHF) =  -40.1214021980     A.U. after    8 cycles
 SCF Done:  E(UHF) =  -39.9287507742     A.U. after    8 cycles
 SCF Done:  E(UHF) =  -39.9180164626     A.U. after    9 cycles
 SCF Done:  E(UHF) =  -39.9079645802     A.U. after    8 cycles
 SCF Done:  E(UHF) =  -39.8985522912     A.U. after    9 cycles
 SCF Done:  E(UHF) =  -39.8897423477     A.U. after    8 cycles
 SCF Done:  E(UHF) =  -39.8815034450     A.U. after    9 cycles
 SCF Done:  E(UHF) =  -39.8738097164     A.U. after    8 cycles
 SCF Done:  E(UHF) =  -39.8666395895     A.U. after    9 cycles
 SCF Done:  E(UHF) =  -39.8599742870     A.U. after    8 cycles

                         Standard orientation:
 ---------------------------------------------------------------------
 Center     Atomic      Atomic             Coordinates (Angstroms)
 Number     Number       Type             X           Y           Z
 ---------------------------------------------------------------------
      1          6           0        0.000000    0.000000    0.253000
      2          1           0        0.000000    0.000000   -3.347000
      3          1           0        0.000000    1.008806    0.609667
      4          1           0       -0.873651   -0.504403    0.609667
      5          1           0        0.873651   -0.504403    0.609667
 ---------------------------------------------------------------------

 SCF Done:  E(UHF) =  -39.8537962677     A.U. after    9 cycles
 Normal termination of Gaussian 09 at Sun Apr 10 20:43:00 2016.
